                         Program Version 5.0.3 -  RELEASE  -
|  1> !HF DEF2-SVP LARGEPRINT
|  2> %SCF
|  3>    MAXITER 500
|  4> END
|  5> * xyz 0 1
|  6> O   0.0000   0.0000   0.0626
|  7> H  -0.7920   0.0000  -0.4973
|  8> H   0.7920   0.0000  -0.4973
|  9> *
| 10>
| 11>                          ****END OF INPUT****

CARTESIAN COORDINATES (ANGSTROEM)
---------------------------------
  O      0.000000    0.000000    0.062600
  H     -0.792000    0.000000   -0.497300
  H      0.792000    0.000000   -0.497300

 Total Charge           Charge          ....    0
 Multiplicity           Mult            ....    1
 Number of Electrons    NEL             ....   10
 Basis Dimension        Dim             ....   24

ORBITAL ENERGIES
----------------

  NO   OCC          E(Eh)            E(eV)
   0   2.0000     -20.544852      -559.0539
   1   2.0000      -1.308357       -35.6022
   2   2.0000      -0.705596       -19.2002
   3   2.0000      -0.555949       -15.1281
   4   2.0000      -0.495137       -13.4734
   5   0.0000       0.174994         4.7618
   6   0.0000       0.253030         6.8853
   7   0.0000       0.804603        21.8944
   8   0.0000       0.833965        22.6933
   9   0.0000       1.185306        32.2538

------------------
MOLECULAR ORBITALS
------------------
                      0         1         2         3         4         5
                 -20.54485  -1.30836  -0.70560  -0.55595  -0.49514   0.17499
                   2.00000   2.00000   2.00000   2.00000   2.00000   0.00000
                  --------  --------  --------  --------  --------  --------
  0O   1s         0.990350 -0.279554  0.000000  0.091206 -0.000000  0.089179
  0O   2s        -0.033188 -0.553001  0.000000  0.190164 -0.000000  0.092748
  0O   3s         0.010544 -0.301234  0.000000  0.313329 -0.000000  1.099852
  0O   1pz        0.002606  0.078242  0.000000  0.552512 -0.000000 -0.185876
  0O   1px        0.000000  0.000000  0.486923 -0.000000 -0.000000  0.000000
  0O   1py       -0.000000  0.000000 -0.000000  0.000000  0.632189  0.000000
  0O   2pz       -0.000254 -0.001394 -0.000000  0.376911 -0.000000 -0.358470
  0O   2px        0.000000  0.000000  0.221814 -0.000000  0.000000  0.000000
  0O   2py        0.000000  0.000000 -0.000000  0.000000  0.498664  0.000000
  0O   1dz2       0.000013 -0.000992 -0.000000 -0.017313  0.000000  0.006553
  0O   1dxz      -0.000000 -0.000000 -0.024853  0.000000 -0.000000 -0.000000
  0O   1dyz      -0.000000  0.000000 -0.000000 -0.000000 -0.017717 -0.000000
  0O   1dx2y2    -0.000898 -0.004273  0.000000 -0.004052 -0.000000  0.009402
  0O   1dxy       0.000000  0.000000  0.000000 -0.000000 -0.000000 -0.000000
  1H   1s         0.001653 -0.186550 -0.327323 -0.194582  0.000000 -0.074475
  1H   2s        -0.001801 -0.006389 -0.083044 -0.054681  0.000000 -0.897141
  1H   1pz        0.001409 -0.015206 -0.029201  0.008419  0.000000 -0.011173
  1H   1px        0.001950 -0.032185 -0.023897 -0.028947 -0.000000 -0.015090
  1H   1py        0.000000 -0.000000 -0.000000  0.000000  0.028265  0.000000
  2H   1s         0.001653 -0.186550  0.327323 -0.194582  0.000000 -0.074475
  2H   2s        -0.001801 -0.006389  0.083044 -0.054681  0.000000 -0.897141
  2H   1pz        0.001409 -0.015206  0.029201  0.008419 -0.000000 -0.011173
  2H   1px       -0.001950  0.032185 -0.023897  0.028947 -0.000000  0.015090
  2H   1py       -0.000000 -0.000000  0.000000  0.000000  0.028265  0.000000
                      6         7         8         9        10        11
                   0.25303   0.80460   0.83396   1.18531   1.20341   1.26597
                   0.00000   0.00000   0.00000   0.00000   0.00000   0.00000
                  --------  --------  --------  --------  --------  --------
  0O   1s        -0.000000  0.000000 -0.109539  0.108754  0.000000 -0.000000
  0O   2s         0.000000  0.000000 -0.369619  0.451213  0.000000 -0.000000
  0O   3s        -0.000000 -0.000000  0.297533  0.115699 -0.000000  0.000000
  0O   1pz        0.000000 -0.000000  0.290234  0.824347  0.000000  0.000000
  0O   1px        0.283807 -0.291368 -0.000000  0.000000  0.000000 -0.753751
  0O   1py        0.000000 -0.000000  0.000000  0.000000 -0.968094 -0.000000
  0O   2pz        0.000000  0.000000  0.111792 -1.179145 -0.000000 -0.000000
  0O   2px        0.663563 -0.496186 -0.000000 -0.000000 -0.000000  1.744534
  0O   2py        0.000000 -0.000000 -0.000000 -0.000000  1.027288  0.000000
  0O   1dz2      -0.000000 -0.000000 -0.011017  0.005561  0.000000  0.000000
  0O   1dxz      -0.018459 -0.107660 -0.000000  0.000000  0.000000 -0.037339
  0O   1dyz       0.000000 -0.000000  0.000000  0.000000  0.003593  0.000000
  0O   1dx2y2    -0.000000 -0.000000  0.104432 -0.000419  0.000000 -0.000000
  0O   1dxy       0.000000 -0.000000  0.000000  0.000000  0.000000  0.000000
  1H   1s         0.024425 -0.969463  0.868410 -0.350648 -0.000000  0.367289
  1H   2s         1.386524  0.663031 -0.562646 -0.067295 -0.000000  0.764035
  1H   1pz        0.011082  0.133235 -0.028733 -0.150792 -0.000000  0.135840
  1H   1px        0.015154  0.054693 -0.224532 -0.085046 -0.000000  0.287735
  1H   1py        0.000000 -0.000000 -0.000000  0.000000  0.007769  0.000000
  2H   1s        -0.024425  0.969463  0.868410 -0.350648 -0.000000 -0.367289
  2H   2s        -1.386524 -0.663031 -0.562646 -0.067295 -0.000000 -0.764035
  2H   1pz       -0.011082 -0.133235 -0.028733 -0.150792 -0.000000 -0.135840
  2H   1px        0.015154  0.054693  0.224532  0.085046  0.000000  0.287735
  2H   1py       -0.000000  0.000000  0.000000 -0.000000  0.007769 -0.000000
                     12        13        14        15        16        17
                   1.33204   1.57983   1.72809   1.83201   2.01422   2.54904
                   0.00000   0.00000   0.00000   0.00000   0.00000   0.00000
                  --------  --------  --------  --------  --------  --------
  0O   1s         0.260736 -0.000000 -0.082806  0.000000  0.000000  0.000000
  0O   2s         1.611717 -0.000000 -0.666746  0.000000  0.000000  0.000000
  0O   3s        -2.830308  0.000000  1.491504 -0.000000 -0.000000  0.000000
  0O   1pz       -0.054797  0.000000  0.103674  0.000000 -0.000000 -0.000000
  0O   1px       -0.000000  0.000000  0.000000 -0.000000 -0.099336  0.798103
  0O   1py        0.000000 -0.000000  0.000000 -0.012260  0.000000  0.000000
  0O   2pz        0.539277 -0.000000 -1.084323  0.000000  0.000000 -0.000000
  0O   2px        0.000000 -0.000000 -0.000000  0.000000  0.899273  0.174644
  0O   2py       -0.000000  0.000000 -0.000000 -0.566749  0.000000 -0.000000
  0O   1dz2      -0.035825 -0.000000 -0.198250  0.000000  0.000000  0.000000
  0O   1dxz       0.000000  0.000000 -0.000000  0.000000  0.015382  0.169341
  0O   1dyz       0.000000 -0.000000 -0.000000 -0.197614  0.000000  0.000000
  0O   1dx2y2     0.031263 -0.000000 -0.026679 -0.000000  0.000000 -0.000000
  0O   1dxy      -0.000000 -0.165008  0.000000 -0.000000 -0.000000 -0.000000
  1H   1s         0.482279 -0.000000 -0.658254  0.000000  0.393550  0.247389
  1H   2s         0.524225 -0.000000 -0.153859  0.000000  0.089351  0.291067
  1H   1pz        0.297540  0.000000  0.508006 -0.000000  0.647407  0.557302
  1H   1px        0.036916  0.000000 -0.406787  0.000000 -0.455970  0.648998
  1H   1py        0.000000  0.666383  0.000000  0.744630 -0.000000  0.000000
  2H   1s         0.482279 -0.000000 -0.658254  0.000000 -0.393550 -0.247389
  2H   2s         0.524225 -0.000000 -0.153859  0.000000 -0.089351 -0.291067
  2H   1pz        0.297540  0.000000  0.508006 -0.000000 -0.647407 -0.557302
  2H   1px       -0.036916 -0.000000  0.406787 -0.000000 -0.455970  0.648998
  2H   1py       -0.000000 -0.666383  0.000000  0.744630  0.000000  0.000000
                     18        19        20        21        22        23
                   2.57078   3.28794   3.39243   3.51585   3.93529   4.18754
                   0.00000   0.00000   0.00000   0.00000   0.00000   0.00000
                  --------  --------  --------  --------  --------  --------
  0O   1s         0.153879  0.000000  0.000000 -0.011933 -0.078568  0.000000
  0O   2s         0.746728 -0.000000  0.000000  0.045553 -0.170954 -0.000000
  0O   3s         0.666096 -0.000000 -0.000000 -0.672476 -1.763178  0.000000
  0O   1pz       -0.575997  0.000000 -0.000000  0.062810  0.363573 -0.000000
  0O   1px       -0.000000  0.000000  0.000000 -0.000000 -0.000000 -0.472445
  0O   1py       -0.000000 -0.014286 -0.000000 -0.000000 -0.000000 -0.000000
  0O   2pz       -0.211826 -0.000000  0.000000  0.583081  0.749784 -0.000000
  0O   2px       -0.000000  0.000000  0.000000 -0.000000 -0.000000 -1.115466
  0O   2py        0.000000  0.278609  0.000000  0.000000  0.000000  0.000000
  0O   1dz2      -0.105862  0.000000 -0.000000 -1.058225  0.078080  0.000000
  0O   1dxz      -0.000000  0.000000 -0.000000  0.000000  0.000000  1.316680
  0O   1dyz      -0.000000 -1.023508 -0.000000 -0.000000  0.000000  0.000000
  0O   1dx2y2    -0.271971  0.000000 -0.000000 -0.014186 -1.177141  0.000000
  0O   1dxy      -0.000000 -0.000000  1.057490 -0.000000 -0.000000  0.000000
  1H   1s        -0.418937  0.000000  0.000000  0.384760  1.072537 -1.031706
  1H   2s        -0.186373 -0.000000  0.000000  0.083189  0.211988 -0.249295
  1H   1pz       -0.438829  0.000000 -0.000000 -0.276139  0.502143 -0.447748
  1H   1px       -0.750760 -0.000000  0.000000  0.428309  0.596817 -0.625158
  1H   1py        0.000000 -0.386016  0.380849 -0.000000 -0.000000  0.000000
  2H   1s        -0.418937 -0.000000  0.000000  0.384760  1.072537  1.031706
  2H   2s        -0.186373 -0.000000  0.000000  0.083189  0.211988  0.249295
  2H   1pz       -0.438829  0.000000 -0.000000 -0.276139  0.502143  0.447748
  2H   1px        0.750760  0.000000 -0.000000 -0.428309 -0.596817 -0.625158
  2H   1py        0.000000 -0.386016 -0.380849  0.000000  0.000000 -0.000000

MULLIKEN ATOMIC CHARGES
-----------------------
   0 O :   -0.376199
   1 H :    0.188100
   2 H :    0.188100
Sum of atomic charges:   -0.0000000

LOEWDIN ATOMIC CHARGES
----------------------
   0 O :   -0.171810
   1 H :    0.085905
   2 H :    0.085905

  Mayer bond orders larger than 0.100000
B(  0-O ,  1-H ) :   0.9878 B(  0-O ,  2-H ) :   0.9878

FINAL SINGLE POINT ENERGY       -75.959340313461

DIPOLE MOMENT
-------------
                                X             Y             Z
Electronic contribution:      0.00000      -0.00000       0.11911
Nuclear contribution   :      0.00000       0.00000      -0.93208
                        -----------------------------------------
Total Dipole Moment    :      0.00000      -0.00000      -0.81297
                        -----------------------------------------
Magnitude (a.u.)       :      0.81297
Magnitude (Debye)      :      2.06640

Rotational constants in cm-1:    30.034947    13.330794     9.232857
Rotational constants in MHz : 900425.051220 399647.143338 276794.089602

                             ****ORCA TERMINATED NORMALLY****
TOTAL RUN TIME: 0 days 0 hours 0 minutes 0 seconds 339 msec
